Title: Exported 
Date: Tue Apr  2 22:57:12 2024
Plotname: 
Flags: real
Abscissa: 0.000000000000000e+00 3.000000000000000e+01
No. Variables: 2
No. Points: 1001
Command: QSPICE, Build Mar 18 2024 12:03:27
Variables:
	0	Time	time
	1	V(yk)	voltage
Values:
0		0.000000000000000e+00
	0.000000000000000e+00
1		3.000000000000000e-02
	0.000000000000000e+00
2		6.000000000000000e-02
	0.000000000000000e+00
3		9.000000000000000e-02
	0.000000000000000e+00
4		1.200000000000000e-01
	0.000000000000000e+00
5		1.500000000000000e-01
	0.000000000000000e+00
6		1.800000000000000e-01
	0.000000000000000e+00
7		2.100000000000000e-01
	0.000000000000000e+00
8		2.400000000000000e-01
	0.000000000000000e+00
9		2.700000000000000e-01
	0.000000000000000e+00
10		3.000000000000000e-01
	0.000000000000000e+00
11		3.300000000000000e-01
	0.000000000000000e+00
12		3.600000000000000e-01
	0.000000000000000e+00
13		3.900000000000000e-01
	0.000000000000000e+00
14		4.200000000000000e-01
	0.000000000000000e+00
15		4.500000000000000e-01
	0.000000000000000e+00
16		4.800000000000000e-01
	0.000000000000000e+00
17		5.100000000000000e-01
	1.229476927481461e+00
18		5.400000000000000e-01
	1.229476927481460e+00
19		5.700000000000000e-01
	1.229476927481460e+00
20		6.000000000000000e-01
	1.229476927481460e+00
21		6.300000000000000e-01
	1.229476927481460e+00
22		6.599999999999999e-01
	1.229476927481460e+00
23		6.899999999999999e-01
	1.229476927481460e+00
24		7.200000000000000e-01
	1.229476927481460e+00
25		7.500000000000000e-01
	1.229476927481460e+00
26		7.800000000000000e-01
	1.229476927481460e+00
27		8.099999999999999e-01
	1.229476927481460e+00
28		8.400000000000000e-01
	1.229476927481460e+00
29		8.700000000000000e-01
	1.229476927481460e+00
30		8.999999999999999e-01
	1.229476927481460e+00
31		9.299999999999999e-01
	1.229476927481460e+00
32		9.600000000000000e-01
	1.229476927481460e+00
33		9.900000000000000e-01
	1.229476927481460e+00
34		1.020000000000000e+00
	6.053924554492944e-01
35		1.050000000000000e+00
	6.053924554492950e-01
36		1.080000000000000e+00
	6.053924554492950e-01
37		1.110000000000000e+00
	6.053924554492950e-01
38		1.140000000000000e+00
	6.053924554492950e-01
39		1.170000000000000e+00
	6.053924554492950e-01
40		1.200000000000000e+00
	6.053924554492950e-01
41		1.230000000000000e+00
	6.053924554492950e-01
42		1.260000000000000e+00
	6.053924554492950e-01
43		1.290000000000000e+00
	6.053924554492950e-01
44		1.320000000000000e+00
	6.053924554492950e-01
45		1.350000000000000e+00
	6.053924554492950e-01
46		1.380000000000000e+00
	6.053924554492950e-01
47		1.410000000000000e+00
	6.053924554492950e-01
48		1.440000000000000e+00
	6.053924554492950e-01
49		1.470000000000000e+00
	6.053924554492950e-01
50		1.500000000000000e+00
	6.053924554492950e-01
51		1.530000000000000e+00
	9.468078603813161e-01
52		1.560000000000000e+00
	9.468078603813170e-01
53		1.590000000000000e+00
	9.468078603813170e-01
54		1.620000000000000e+00
	9.468078603813170e-01
55		1.650000000000000e+00
	9.468078603813170e-01
56		1.680000000000000e+00
	9.468078603813170e-01
57		1.710000000000000e+00
	9.468078603813170e-01
58		1.740000000000000e+00
	9.468078603813170e-01
59		1.770000000000000e+00
	9.468078603813170e-01
60		1.800000000000000e+00
	9.468078603813170e-01
61		1.830000000000000e+00
	9.468078603813170e-01
62		1.860000000000000e+00
	9.468078603813170e-01
63		1.890000000000000e+00
	9.468078603813170e-01
64		1.920000000000000e+00
	9.468078603813170e-01
65		1.950000000000000e+00
	9.468078603813170e-01
66		1.980000000000000e+00
	9.468078603813170e-01
67		2.010000000000000e+00
	7.928848258672705e-01
68		2.040000000000000e+00
	7.928848258672708e-01
69		2.070000000000000e+00
	7.928848258672708e-01
70		2.100000000000000e+00
	7.928848258672708e-01
71		2.130000000000000e+00
	7.928848258672708e-01
72		2.160000000000000e+00
	7.928848258672708e-01
73		2.190000000000000e+00
	7.928848258672708e-01
74		2.220000000000000e+00
	7.928848258672708e-01
75		2.250000000000000e+00
	7.928848258672708e-01
76		2.280000000000000e+00
	7.928848258672708e-01
77		2.310000000000000e+00
	7.928848258672708e-01
78		2.340000000000000e+00
	7.928848258672708e-01
79		2.370000000000000e+00
	7.928848258672708e-01
80		2.400000000000000e+00
	7.928848258672708e-01
81		2.430000000000000e+00
	7.928848258672708e-01
82		2.460000000000000e+00
	7.928848258672708e-01
83		2.490000000000000e+00
	7.928848258672708e-01
84		2.520000000000000e+00
	8.903503409065241e-01
85		2.550000000000000e+00
	8.903503409065249e-01
86		2.580000000000000e+00
	8.903503409065249e-01
87		2.610000000000000e+00
	8.903503409065249e-01
88		2.640000000000000e+00
	8.903503409065249e-01
89		2.670000000000000e+00
	8.903503409065249e-01
90		2.700000000000000e+00
	8.903503409065249e-01
91		2.730000000000000e+00
	8.903503409065249e-01
92		2.760000000000000e+00
	8.903503409065249e-01
93		2.790000000000000e+00
	8.903503409065249e-01
94		2.820000000000000e+00
	8.903503409065249e-01
95		2.850000000000000e+00
	8.903503409065249e-01
96		2.880000000000000e+00
	8.903503409065249e-01
97		2.910000000000000e+00
	8.903503409065249e-01
98		2.940000000000000e+00
	8.903503409065249e-01
99		2.970000000000000e+00
	8.903503409065249e-01
100		3.000000000000000e+00
	8.903503409065249e-01
101		3.030000000000000e+00
	8.577346793180469e-01
102		3.060000000000000e+00
	8.577346793180471e-01
103		3.090000000000000e+00
	8.577346793180471e-01
104		3.120000000000000e+00
	8.577346793180471e-01
105		3.150000000000000e+00
	8.577346793180471e-01
106		3.180000000000000e+00
	8.577346793180471e-01
107		3.210000000000000e+00
	8.577346793180471e-01
108		3.240000000000000e+00
	8.577346793180471e-01
109		3.270000000000000e+00
	8.577346793180471e-01
110		3.300000000000000e+00
	8.577346793180471e-01
111		3.330000000000000e+00
	8.577346793180471e-01
112		3.360000000000000e+00
	8.577346793180471e-01
113		3.390000000000000e+00
	8.577346793180471e-01
114		3.420000000000000e+00
	8.577346793180471e-01
115		3.450000000000000e+00
	8.577346793180471e-01
116		3.480000000000000e+00
	8.577346793180471e-01
117		3.510000000000000e+00
	8.901596060434347e-01
118		3.540000000000000e+00
	8.901596060434341e-01
119		3.570000000000000e+00
	8.901596060434341e-01
120		3.600000000000000e+00
	8.901596060434341e-01
121		3.630000000000000e+00
	8.901596060434341e-01
122		3.660000000000000e+00
	8.901596060434341e-01
123		3.690000000000000e+00
	8.901596060434341e-01
124		3.720000000000000e+00
	8.901596060434341e-01
125		3.750000000000000e+00
	8.901596060434341e-01
126		3.780000000000000e+00
	8.901596060434341e-01
127		3.810000000000000e+00
	8.901596060434341e-01
128		3.840000000000000e+00
	8.901596060434341e-01
129		3.870000000000000e+00
	8.901596060434341e-01
130		3.900000000000000e+00
	8.901596060434341e-01
131		3.930000000000000e+00
	8.901596060434341e-01
132		3.960000000000000e+00
	8.901596060434341e-01
133		3.990000000000000e+00
	8.901596060434341e-01
134		4.020000000000000e+00
	8.882522574125291e-01
135		4.050000000000000e+00
	8.882522574125290e-01
136		4.080000000000000e+00
	8.882522574125290e-01
137		4.109999999999999e+00
	8.882522574125290e-01
138		4.140000000000000e+00
	8.882522574125290e-01
139		4.170000000000000e+00
	8.882522574125290e-01
140		4.200000000000000e+00
	8.882522574125290e-01
141		4.230000000000000e+00
	8.882522574125290e-01
142		4.260000000000000e+00
	8.882522574125290e-01
143		4.290000000000000e+00
	8.882522574125290e-01
144		4.320000000000000e+00
	8.882522574125290e-01
145		4.350000000000000e+00
	8.882522574125290e-01
146		4.380000000000000e+00
	8.882522574125290e-01
147		4.410000000000000e+00
	8.882522574125290e-01
148		4.440000000000000e+00
	8.882522574125290e-01
149		4.470000000000000e+00
	8.882522574125290e-01
150		4.500000000000000e+00
	8.882522574125290e-01
151		4.530000000000000e+00
	9.025573721443179e-01
152		4.560000000000000e+00
	9.025573721443180e-01
153		4.590000000000000e+00
	9.025573721443180e-01
154		4.620000000000000e+00
	9.025573721443180e-01
155		4.649999999999999e+00
	9.025573721443180e-01
156		4.680000000000000e+00
	9.025573721443180e-01
157		4.710000000000000e+00
	9.025573721443180e-01
158		4.740000000000000e+00
	9.025573721443180e-01
159		4.770000000000000e+00
	9.025573721443180e-01
160		4.800000000000000e+00
	9.025573721443180e-01
161		4.830000000000000e+00
	9.025573721443180e-01
162		4.859999999999999e+00
	9.025573721443180e-01
163		4.890000000000000e+00
	9.025573721443180e-01
164		4.920000000000000e+00
	9.025573721443180e-01
165		4.950000000000000e+00
	9.025573721443180e-01
166		4.980000000000000e+00
	9.025573721443180e-01
167		5.010000000000000e+00
	9.077072134477621e-01
168		5.040000000000000e+00
	9.077072134477621e-01
169		5.069999999999999e+00
	9.077072134477621e-01
170		5.100000000000000e+00
	9.077072134477621e-01
171		5.130000000000000e+00
	9.077072134477621e-01
172		5.160000000000000e+00
	9.077072134477621e-01
173		5.190000000000000e+00
	9.077072134477621e-01
174		5.220000000000000e+00
	9.077072134477621e-01
175		5.250000000000000e+00
	9.077072134477621e-01
176		5.279999999999999e+00
	9.077072134477621e-01
177		5.310000000000000e+00
	9.077072134477621e-01
178		5.340000000000000e+00
	9.077072134477621e-01
179		5.370000000000000e+00
	9.077072134477621e-01
180		5.399999999999999e+00
	9.077072134477621e-01
181		5.430000000000000e+00
	9.077072134477621e-01
182		5.460000000000000e+00
	9.077072134477621e-01
183		5.490000000000000e+00
	9.077072134477621e-01
184		5.520000000000000e+00
	9.164810171499250e-01
185		5.550000000000000e+00
	9.164810171499250e-01
186		5.580000000000000e+00
	9.164810171499250e-01
187		5.609999999999999e+00
	9.164810171499250e-01
188		5.640000000000000e+00
	9.164810171499250e-01
189		5.670000000000000e+00
	9.164810171499250e-01
190		5.700000000000000e+00
	9.164810171499250e-01
191		5.730000000000000e+00
	9.164810171499250e-01
192		5.760000000000000e+00
	9.164810171499250e-01
193		5.790000000000000e+00
	9.164810171499250e-01
194		5.819999999999999e+00
	9.164810171499250e-01
195		5.850000000000000e+00
	9.164810171499250e-01
196		5.880000000000000e+00
	9.164810171499250e-01
197		5.910000000000000e+00
	9.164810171499250e-01
198		5.940000000000000e+00
	9.164810171499250e-01
199		5.970000000000000e+00
	9.164810171499250e-01
200		6.000000000000000e+00
	9.164810171499250e-01
201		6.029999999999999e+00
	9.223937979057307e-01
202		6.060000000000000e+00
	9.223937979057309e-01
203		6.090000000000000e+00
	9.223937979057309e-01
204		6.120000000000000e+00
	9.223937979057309e-01
205		6.149999999999999e+00
	9.223937979057309e-01
206		6.180000000000000e+00
	9.223937979057309e-01
207		6.210000000000000e+00
	9.223937979057309e-01
208		6.240000000000000e+00
	9.223937979057309e-01
209		6.270000000000000e+00
	9.223937979057309e-01
210		6.300000000000000e+00
	9.223937979057309e-01
211		6.330000000000000e+00
	9.223937979057309e-01
212		6.359999999999999e+00
	9.223937979057309e-01
213		6.390000000000000e+00
	9.223937979057309e-01
214		6.420000000000000e+00
	9.223937979057309e-01
215		6.450000000000000e+00
	9.223937979057309e-01
216		6.480000000000000e+00
	9.223937979057309e-01
217		6.510000000000000e+00
	9.290695181138992e-01
218		6.540000000000000e+00
	9.290695181138992e-01
219		6.569999999999999e+00
	9.290695181138992e-01
220		6.600000000000000e+00
	9.290695181138992e-01
221		6.630000000000000e+00
	9.290695181138992e-01
222		6.660000000000000e+00
	9.290695181138992e-01
223		6.690000000000000e+00
	9.290695181138992e-01
224		6.720000000000000e+00
	9.290695181138992e-01
225		6.750000000000000e+00
	9.290695181138992e-01
226		6.779999999999999e+00
	9.290695181138992e-01
227		6.810000000000000e+00
	9.290695181138992e-01
228		6.840000000000000e+00
	9.290695181138992e-01
229		6.870000000000000e+00
	9.290695181138992e-01
230		6.899999999999999e+00
	9.290695181138992e-01
231		6.930000000000000e+00
	9.290695181138992e-01
232		6.960000000000000e+00
	9.290695181138992e-01
233		6.989999999999999e+00
	9.290695181138992e-01
234		7.020000000000000e+00
	9.344100942804340e-01
235		7.050000000000000e+00
	9.344100942804340e-01
236		7.080000000000000e+00
	9.344100942804340e-01
237		7.109999999999999e+00
	9.344100942804340e-01
238		7.140000000000000e+00
	9.344100942804340e-01
239		7.170000000000000e+00
	9.344100942804340e-01
240		7.199999999999999e+00
	9.344100942804340e-01
241		7.230000000000000e+00
	9.344100942804340e-01
242		7.260000000000000e+00
	9.344100942804340e-01
243		7.290000000000000e+00
	9.344100942804340e-01
244		7.319999999999999e+00
	9.344100942804340e-01
245		7.350000000000000e+00
	9.344100942804340e-01
246		7.380000000000000e+00
	9.344100942804340e-01
247		7.410000000000000e+00
	9.344100942804340e-01
248		7.440000000000000e+00
	9.344100942804340e-01
249		7.470000000000000e+00
	9.344100942804340e-01
250		7.500000000000000e+00
	9.344100942804340e-01
251		7.529999999999999e+00
	9.399414053100591e-01
252		7.560000000000000e+00
	9.399414053100591e-01
253		7.590000000000000e+00
	9.399414053100591e-01
254		7.620000000000000e+00
	9.399414053100591e-01
255		7.649999999999999e+00
	9.399414053100591e-01
256		7.680000000000000e+00
	9.399414053100591e-01
257		7.710000000000000e+00
	9.399414053100591e-01
258		7.739999999999999e+00
	9.399414053100591e-01
259		7.770000000000000e+00
	9.399414053100591e-01
260		7.800000000000000e+00
	9.399414053100591e-01
261		7.830000000000000e+00
	9.399414053100591e-01
262		7.859999999999999e+00
	9.399414053100591e-01
263		7.890000000000000e+00
	9.399414053100591e-01
264		7.920000000000000e+00
	9.399414053100591e-01
265		7.949999999999999e+00
	9.399414053100591e-01
266		7.980000000000000e+00
	9.399414053100591e-01
267		8.010000000000000e+00
	9.445190420242310e-01
268		8.039999999999999e+00
	9.445190420242310e-01
269		8.070000000000000e+00
	9.445190420242310e-01
270		8.100000000000000e+00
	9.445190420242310e-01
271		8.129999999999999e+00
	9.445190420242310e-01
272		8.160000000000000e+00
	9.445190420242310e-01
273		8.190000000000000e+00
	9.445190420242310e-01
274		8.219999999999999e+00
	9.445190420242310e-01
275		8.250000000000000e+00
	9.445190420242310e-01
276		8.279999999999999e+00
	9.445190420242310e-01
277		8.310000000000000e+00
	9.445190420242310e-01
278		8.340000000000000e+00
	9.445190420242310e-01
279		8.369999999999999e+00
	9.445190420242310e-01
280		8.400000000000000e+00
	9.445190420242310e-01
281		8.430000000000000e+00
	9.445190420242310e-01
282		8.459999999999999e+00
	9.445190420242310e-01
283		8.490000000000000e+00
	9.445190420242310e-01
284		8.520000000000000e+00
	9.490966787384031e-01
285		8.549999999999999e+00
	9.490966787384031e-01
286		8.580000000000000e+00
	9.490966787384031e-01
287		8.609999999999999e+00
	9.490966787384031e-01
288		8.640000000000001e+00
	9.490966787384031e-01
289		8.670000000000000e+00
	9.490966787384031e-01
290		8.699999999999999e+00
	9.490966787384031e-01
291		8.730000000000000e+00
	9.490966787384031e-01
292		8.760000000000000e+00
	9.490966787384031e-01
293		8.789999999999999e+00
	9.490966787384031e-01
294		8.820000000000000e+00
	9.490966787384031e-01
295		8.850000000000000e+00
	9.490966787384031e-01
296		8.879999999999999e+00
	9.490966787384031e-01
297		8.910000000000000e+00
	9.490966787384031e-01
298		8.940000000000000e+00
	9.490966787384031e-01
299		8.969999999999999e+00
	9.490966787384031e-01
300		9.000000000000000e+00
	9.490966787384031e-01
301		9.029999999999999e+00
	9.531021108633039e-01
302		9.060000000000000e+00
	9.531021108633040e-01
303		9.090000000000000e+00
	9.531021108633040e-01
304		9.119999999999999e+00
	9.531021108633040e-01
305		9.150000000000000e+00
	9.531021108633040e-01
306		9.180000000000000e+00
	9.531021108633040e-01
307		9.209999999999999e+00
	9.531021108633040e-01
308		9.240000000000000e+00
	9.531021108633040e-01
309		9.270000000000000e+00
	9.531021108633040e-01
310		9.299999999999999e+00
	9.531021108633040e-01
311		9.330000000000000e+00
	9.531021108633040e-01
312		9.359999999999999e+00
	9.531021108633040e-01
313		9.389999999999999e+00
	9.531021108633040e-01
314		9.420000000000000e+00
	9.531021108633040e-01
315		9.449999999999999e+00
	9.531021108633040e-01
316		9.480000000000000e+00
	9.531021108633040e-01
317		9.510000000000000e+00
	9.569168081251140e-01
318		9.539999999999999e+00
	9.569168081251140e-01
319		9.570000000000000e+00
	9.569168081251140e-01
320		9.600000000000000e+00
	9.569168081251140e-01
321		9.629999999999999e+00
	9.569168081251140e-01
322		9.660000000000000e+00
	9.569168081251140e-01
323		9.690000000000000e+00
	9.569168081251140e-01
324		9.719999999999999e+00
	9.569168081251140e-01
325		9.750000000000000e+00
	9.569168081251140e-01
326		9.779999999999999e+00
	9.569168081251140e-01
327		9.810000000000000e+00
	9.569168081251140e-01
328		9.840000000000000e+00
	9.569168081251140e-01
329		9.869999999999999e+00
	9.569168081251140e-01
330		9.900000000000000e+00
	9.569168081251140e-01
331		9.930000000000000e+00
	9.569168081251140e-01
332		9.959999999999999e+00
	9.569168081251140e-01
333		9.990000000000000e+00
	9.569168081251140e-01
334		1.002000000000000e+01
	9.603500356607440e-01
335		1.005000000000000e+01
	9.603500356607440e-01
336		1.008000000000000e+01
	9.603500356607440e-01
337		1.011000000000000e+01
	9.603500356607440e-01
338		1.014000000000000e+01
	9.603500356607440e-01
339		1.017000000000000e+01
	9.603500356607440e-01
340		1.020000000000000e+01
	9.603500356607440e-01
341		1.023000000000000e+01
	9.603500356607440e-01
342		1.026000000000000e+01
	9.603500356607440e-01
343		1.029000000000000e+01
	9.603500356607440e-01
344		1.032000000000000e+01
	9.603500356607440e-01
345		1.035000000000000e+01
	9.603500356607440e-01
346		1.038000000000000e+01
	9.603500356607440e-01
347		1.041000000000000e+01
	9.603500356607440e-01
348		1.044000000000000e+01
	9.603500356607440e-01
349		1.047000000000000e+01
	9.603500356607440e-01
350		1.050000000000000e+01
	9.603500356607440e-01
351		1.053000000000000e+01
	9.634017934701919e-01
352		1.056000000000000e+01
	9.634017934701921e-01
353		1.059000000000000e+01
	9.634017934701921e-01
354		1.062000000000000e+01
	9.634017934701921e-01
355		1.065000000000000e+01
	9.634017934701921e-01
356		1.068000000000000e+01
	9.634017934701921e-01
357		1.071000000000000e+01
	9.634017934701921e-01
358		1.074000000000000e+01
	9.634017934701921e-01
359		1.077000000000000e+01
	9.634017934701921e-01
360		1.080000000000000e+01
	9.634017934701921e-01
361		1.083000000000000e+01
	9.634017934701921e-01
362		1.086000000000000e+01
	9.634017934701921e-01
363		1.089000000000000e+01
	9.634017934701921e-01
364		1.092000000000000e+01
	9.634017934701921e-01
365		1.095000000000000e+01
	9.634017934701921e-01
366		1.098000000000000e+01
	9.634017934701921e-01
367		1.101000000000000e+01
	9.666442861427310e-01
368		1.104000000000000e+01
	9.666442861427310e-01
369		1.107000000000000e+01
	9.666442861427310e-01
370		1.110000000000000e+01
	9.666442861427310e-01
371		1.113000000000000e+01
	9.666442861427310e-01
372		1.116000000000000e+01
	9.666442861427310e-01
373		1.119000000000000e+01
	9.666442861427310e-01
374		1.122000000000000e+01
	9.666442861427310e-01
375		1.125000000000000e+01
	9.666442861427310e-01
376		1.128000000000000e+01
	9.666442861427310e-01
377		1.131000000000000e+01
	9.666442861427310e-01
378		1.134000000000000e+01
	9.666442861427310e-01
379		1.137000000000000e+01
	9.666442861427310e-01
380		1.140000000000000e+01
	9.666442861427310e-01
381		1.143000000000000e+01
	9.666442861427310e-01
382		1.146000000000000e+01
	9.666442861427310e-01
383		1.149000000000000e+01
	9.666442861427310e-01
384		1.152000000000000e+01
	9.689331044998170e-01
385		1.155000000000000e+01
	9.689331044998170e-01
386		1.158000000000000e+01
	9.689331044998170e-01
387		1.161000000000000e+01
	9.689331044998170e-01
388		1.164000000000000e+01
	9.689331044998170e-01
389		1.167000000000000e+01
	9.689331044998170e-01
390		1.170000000000000e+01
	9.689331044998170e-01
391		1.173000000000000e+01
	9.689331044998170e-01
392		1.176000000000000e+01
	9.689331044998170e-01
393		1.179000000000000e+01
	9.689331044998170e-01
394		1.182000000000000e+01
	9.689331044998170e-01
395		1.185000000000000e+01
	9.689331044998170e-01
396		1.188000000000000e+01
	9.689331044998170e-01
397		1.191000000000000e+01
	9.689331044998170e-01
398		1.194000000000000e+01
	9.689331044998170e-01
399		1.197000000000000e+01
	9.689331044998170e-01
400		1.200000000000000e+01
	9.689331044998170e-01
401		1.203000000000000e+01
	9.717941274461751e-01
402		1.206000000000000e+01
	9.717941274461751e-01
403		1.209000000000000e+01
	9.717941274461751e-01
404		1.212000000000000e+01
	9.717941274461751e-01
405		1.215000000000000e+01
	9.717941274461751e-01
406		1.218000000000000e+01
	9.717941274461751e-01
407		1.221000000000000e+01
	9.717941274461751e-01
408		1.224000000000000e+01
	9.717941274461751e-01
409		1.227000000000000e+01
	9.717941274461751e-01
410		1.230000000000000e+01
	9.717941274461751e-01
411		1.233000000000000e+01
	9.717941274461751e-01
412		1.236000000000000e+01
	9.717941274461751e-01
413		1.239000000000000e+01
	9.717941274461751e-01
414		1.242000000000000e+01
	9.717941274461751e-01
415		1.245000000000000e+01
	9.717941274461751e-01
416		1.248000000000000e+01
	9.717941274461751e-01
417		1.251000000000000e+01
	9.737014760770801e-01
418		1.254000000000000e+01
	9.737014760770801e-01
419		1.257000000000000e+01
	9.737014760770801e-01
420		1.260000000000000e+01
	9.737014760770801e-01
421		1.263000000000000e+01
	9.737014760770801e-01
422		1.266000000000000e+01
	9.737014760770801e-01
423		1.269000000000000e+01
	9.737014760770801e-01
424		1.272000000000000e+01
	9.737014760770801e-01
425		1.275000000000000e+01
	9.737014760770801e-01
426		1.278000000000000e+01
	9.737014760770801e-01
427		1.281000000000000e+01
	9.737014760770801e-01
428		1.284000000000000e+01
	9.737014760770801e-01
429		1.287000000000000e+01
	9.737014760770801e-01
430		1.290000000000000e+01
	9.737014760770801e-01
431		1.293000000000000e+01
	9.737014760770801e-01
432		1.296000000000000e+01
	9.737014760770801e-01
433		1.299000000000000e+01
	9.737014760770801e-01
434		1.302000000000000e+01
	9.759902944341661e-01
435		1.305000000000000e+01
	9.759902944341661e-01
436		1.308000000000000e+01
	9.759902944341661e-01
437		1.311000000000000e+01
	9.759902944341661e-01
438		1.314000000000000e+01
	9.759902944341661e-01
439		1.317000000000000e+01
	9.759902944341661e-01
440		1.320000000000000e+01
	9.759902944341661e-01
441		1.323000000000000e+01
	9.759902944341661e-01
442		1.326000000000000e+01
	9.759902944341661e-01
443		1.329000000000000e+01
	9.759902944341661e-01
444		1.332000000000000e+01
	9.759902944341661e-01
445		1.335000000000000e+01
	9.759902944341661e-01
446		1.338000000000000e+01
	9.759902944341661e-01
447		1.341000000000000e+01
	9.759902944341661e-01
448		1.344000000000000e+01
	9.759902944341661e-01
449		1.347000000000000e+01
	9.759902944341661e-01
450		1.350000000000000e+01
	9.759902944341661e-01
451		1.353000000000000e+01
	9.778976430650711e-01
452		1.356000000000000e+01
	9.778976430650711e-01
453		1.359000000000000e+01
	9.778976430650711e-01
454		1.362000000000000e+01
	9.778976430650711e-01
455		1.365000000000000e+01
	9.778976430650711e-01
456		1.368000000000000e+01
	9.778976430650711e-01
457		1.371000000000000e+01
	9.778976430650711e-01
458		1.374000000000000e+01
	9.778976430650711e-01
459		1.377000000000000e+01
	9.778976430650711e-01
460		1.380000000000000e+01
	9.778976430650711e-01
461		1.383000000000000e+01
	9.778976430650711e-01
462		1.386000000000000e+01
	9.778976430650711e-01
463		1.389000000000000e+01
	9.778976430650711e-01
464		1.392000000000000e+01
	9.778976430650711e-01
465		1.395000000000000e+01
	9.778976430650711e-01
466		1.398000000000000e+01
	9.778976430650711e-01
467		1.401000000000000e+01
	9.796142568328861e-01
468		1.404000000000000e+01
	9.796142568328861e-01
469		1.407000000000000e+01
	9.796142568328861e-01
470		1.410000000000000e+01
	9.796142568328861e-01
471		1.413000000000000e+01
	9.796142568328861e-01
472		1.416000000000000e+01
	9.796142568328861e-01
473		1.419000000000000e+01
	9.796142568328861e-01
474		1.422000000000000e+01
	9.796142568328861e-01
475		1.425000000000000e+01
	9.796142568328861e-01
476		1.428000000000000e+01
	9.796142568328861e-01
477		1.431000000000000e+01
	9.796142568328861e-01
478		1.434000000000000e+01
	9.796142568328861e-01
479		1.437000000000000e+01
	9.796142568328861e-01
480		1.440000000000000e+01
	9.796142568328861e-01
481		1.443000000000000e+01
	9.796142568328861e-01
482		1.446000000000000e+01
	9.796142568328861e-01
483		1.449000000000000e+01
	9.796142568328861e-01
484		1.452000000000000e+01
	9.813308706007001e-01
485		1.455000000000000e+01
	9.813308706007000e-01
486		1.458000000000000e+01
	9.813308706007000e-01
487		1.461000000000000e+01
	9.813308706007000e-01
488		1.464000000000000e+01
	9.813308706007000e-01
489		1.467000000000000e+01
	9.813308706007000e-01
490		1.470000000000000e+01
	9.813308706007000e-01
491		1.473000000000000e+01
	9.813308706007000e-01
492		1.476000000000000e+01
	9.813308706007000e-01
493		1.479000000000000e+01
	9.813308706007000e-01
494		1.482000000000000e+01
	9.813308706007000e-01
495		1.485000000000000e+01
	9.813308706007000e-01
496		1.488000000000000e+01
	9.813308706007000e-01
497		1.491000000000000e+01
	9.813308706007000e-01
498		1.494000000000000e+01
	9.813308706007000e-01
499		1.497000000000000e+01
	9.813308706007000e-01
500		1.500000000000000e+01
	9.813308706007000e-01
501		1.503000000000000e+01
	9.826660146423339e-01
502		1.506000000000000e+01
	9.826660146423339e-01
503		1.509000000000000e+01
	9.826660146423339e-01
504		1.512000000000000e+01
	9.826660146423339e-01
505		1.515000000000000e+01
	9.826660146423339e-01
506		1.518000000000000e+01
	9.826660146423339e-01
507		1.521000000000000e+01
	9.826660146423339e-01
508		1.524000000000000e+01
	9.826660146423339e-01
509		1.527000000000000e+01
	9.826660146423339e-01
510		1.530000000000000e+01
	9.826660146423339e-01
511		1.533000000000000e+01
	9.826660146423339e-01
512		1.536000000000000e+01
	9.826660146423339e-01
513		1.539000000000000e+01
	9.826660146423339e-01
514		1.542000000000000e+01
	9.826660146423339e-01
515		1.545000000000000e+01
	9.826660146423339e-01
516		1.548000000000000e+01
	9.826660146423339e-01
517		1.551000000000000e+01
	9.841918935470580e-01
518		1.554000000000000e+01
	9.841918935470580e-01
519		1.557000000000000e+01
	9.841918935470580e-01
520		1.560000000000000e+01
	9.841918935470580e-01
521		1.563000000000000e+01
	9.841918935470580e-01
522		1.566000000000000e+01
	9.841918935470580e-01
523		1.569000000000000e+01
	9.841918935470580e-01
524		1.572000000000000e+01
	9.841918935470580e-01
525		1.575000000000000e+01
	9.841918935470580e-01
526		1.578000000000000e+01
	9.841918935470580e-01
527		1.581000000000000e+01
	9.841918935470580e-01
528		1.584000000000000e+01
	9.841918935470580e-01
529		1.587000000000000e+01
	9.841918935470580e-01
530		1.590000000000000e+01
	9.841918935470580e-01
531		1.593000000000000e+01
	9.841918935470580e-01
532		1.596000000000000e+01
	9.841918935470580e-01
533		1.599000000000000e+01
	9.841918935470580e-01
534		1.602000000000000e+01
	9.855270375886921e-01
535		1.605000000000000e+01
	9.855270375886921e-01
536		1.608000000000000e+01
	9.855270375886921e-01
537		1.611000000000000e+01
	9.855270375886921e-01
538		1.614000000000000e+01
	9.855270375886921e-01
539		1.617000000000000e+01
	9.855270375886921e-01
540		1.620000000000000e+01
	9.855270375886921e-01
541		1.623000000000000e+01
	9.855270375886921e-01
542		1.626000000000000e+01
	9.855270375886921e-01
543		1.629000000000000e+01
	9.855270375886921e-01
544		1.632000000000000e+01
	9.855270375886921e-01
545		1.635000000000000e+01
	9.855270375886921e-01
546		1.638000000000000e+01
	9.855270375886921e-01
547		1.641000000000000e+01
	9.855270375886921e-01
548		1.644000000000000e+01
	9.855270375886921e-01
549		1.647000000000000e+01
	9.855270375886921e-01
550		1.650000000000000e+01
	9.855270375886921e-01
551		1.653000000000000e+01
	9.864807119041439e-01
552		1.656000000000000e+01
	9.864807119041439e-01
553		1.659000000000000e+01
	9.864807119041439e-01
554		1.662000000000000e+01
	9.864807119041439e-01
555		1.665000000000000e+01
	9.864807119041439e-01
556		1.668000000000000e+01
	9.864807119041439e-01
557		1.671000000000000e+01
	9.864807119041439e-01
558		1.674000000000000e+01
	9.864807119041439e-01
559		1.677000000000000e+01
	9.864807119041439e-01
560		1.680000000000000e+01
	9.864807119041439e-01
561		1.683000000000000e+01
	9.864807119041439e-01
562		1.686000000000000e+01
	9.864807119041439e-01
563		1.689000000000000e+01
	9.864807119041439e-01
564		1.692000000000000e+01
	9.864807119041439e-01
565		1.695000000000000e+01
	9.864807119041439e-01
566		1.698000000000000e+01
	9.864807119041441e-01
567		1.701000000000000e+01
	9.876251210826869e-01
568		1.704000000000000e+01
	9.876251210826870e-01
569		1.707000000000000e+01
	9.876251210826870e-01
570		1.710000000000000e+01
	9.876251210826870e-01
571		1.713000000000000e+01
	9.876251210826870e-01
572		1.716000000000000e+01
	9.876251210826870e-01
573		1.719000000000000e+01
	9.876251210826870e-01
574		1.722000000000000e+01
	9.876251210826870e-01
575		1.725000000000000e+01
	9.876251210826870e-01
576		1.728000000000000e+01
	9.876251210826870e-01
577		1.731000000000000e+01
	9.876251210826870e-01
578		1.734000000000000e+01
	9.876251210826870e-01
579		1.737000000000000e+01
	9.876251210826870e-01
580		1.740000000000000e+01
	9.876251210826870e-01
581		1.743000000000000e+01
	9.876251210826870e-01
582		1.746000000000000e+01
	9.876251210826870e-01
583		1.749000000000000e+01
	9.876251210826870e-01
584		1.752000000000000e+01
	9.887695302612299e-01
585		1.755000000000000e+01
	9.887695302612299e-01
586		1.758000000000000e+01
	9.887695302612299e-01
587		1.761000000000000e+01
	9.887695302612299e-01
588		1.764000000000000e+01
	9.887695302612299e-01
589		1.767000000000000e+01
	9.887695302612299e-01
590		1.770000000000000e+01
	9.887695302612299e-01
591		1.773000000000000e+01
	9.887695302612299e-01
592		1.776000000000000e+01
	9.887695302612299e-01
593		1.779000000000000e+01
	9.887695302612299e-01
594		1.782000000000000e+01
	9.887695302612299e-01
595		1.785000000000000e+01
	9.887695302612299e-01
596		1.788000000000000e+01
	9.887695302612299e-01